phonopy:
  version: "2.47.1"
  frequency_unit_conversion_factor: 15.633302
  symmetry_tolerance: 1.00000e-05

space_group:
  type: "P6_3/mcm"
  number: 193
  Hall_symbol: "-P 6c 2"

primitive_matrix:
- [  1.000000000000000,  0.000000000000000,  0.000000000000000 ]
- [  0.000000000000000,  1.000000000000000,  0.000000000000000 ]
- [  0.000000000000000, -0.000000000000000,  1.000000000000000 ]

supercell_matrix:
- [   2,   0,   0 ]
- [   0,   2,   0 ]
- [   0,   0,   2 ]

primitive_cell:
  lattice:
  - [     7.194479631954120,    -4.153734752187988,     0.000000000000001 ] # a
  - [     0.000000000000000,     8.307469504375980,     0.000000000000000 ] # b
  - [     0.000000000000000,     0.000000000000000,     6.698396964937756 ] # c
  points:
  - symbol: Ca # 1
    coordinates: [  0.256375811015602,  1.000000000000000,  0.250000000000000 ]
    mass: 40.078000
  - symbol: Ca # 2
    coordinates: [  0.000000000000000,  0.256375811015602,  0.250000000000000 ]
    mass: 40.078000
  - symbol: Ca # 3
    coordinates: [  0.666666666666664,  0.333333333333336,  0.500000000000000 ]
    mass: 40.078000
  - symbol: Ca # 4
    coordinates: [  0.333333333333336,  0.666666666666664,  1.000000000000000 ]
    mass: 40.078000
  - symbol: Ca # 5
    coordinates: [  0.256375811015602,  0.256375811015602,  0.750000000000000 ]
    mass: 40.078000
  - symbol: Ca # 6
    coordinates: [  0.000000000000000,  0.743624188984399,  0.750000000000000 ]
    mass: 40.078000
  - symbol: Ca # 7
    coordinates: [  0.743624188984398,  1.000000000000000,  0.750000000000000 ]
    mass: 40.078000
  - symbol: Ca # 8
    coordinates: [  0.743624188984398,  0.743624188984399,  0.250000000000000 ]
    mass: 40.078000
  - symbol: Ca # 9
    coordinates: [  0.666666666666664,  0.333333333333336,  1.000000000000000 ]
    mass: 40.078000
  - symbol: Ca # 10
    coordinates: [  0.333333333333336,  0.666666666666664,  0.500000000000000 ]
    mass: 40.078000
  - symbol: P # 11
    coordinates: [  0.390152172332670,  0.390152172332670,  0.250000000000000 ]
    mass: 30.973762
  - symbol: P # 12
    coordinates: [  0.390152172332670,  1.000000000000000,  0.750000000000000 ]
    mass: 30.973762
  - symbol: P # 13
    coordinates: [  0.609847827667330,  0.609847827667331,  0.750000000000000 ]
    mass: 30.973762
  - symbol: P # 14
    coordinates: [  0.000000000000000,  0.390152172332670,  0.750000000000000 ]
    mass: 30.973762
  - symbol: P # 15
    coordinates: [  0.609847827667330,  1.000000000000000,  0.250000000000000 ]
    mass: 30.973762
  - symbol: P # 16
    coordinates: [  0.000000000000000,  0.609847827667331,  0.250000000000000 ]
    mass: 30.973762
  reciprocal_lattice: # without 2pi
  - [     0.138995459179358,     0.000000000000000,     0.000000000000000 ] # a*
  - [     0.069497729589679,     0.120373598660007,     0.000000000000000 ] # b*
  - [    -0.000000000000000,    -0.000000000000000,     0.149289450182547 ] # c*

unit_cell:
  lattice:
  - [     7.194479631954120,    -4.153734752187989,     0.000000000000001 ] # a
  - [     0.000000000000000,     8.307469504375982,     0.000000000000001 ] # b
  - [     0.000000000000000,     0.000000000000000,     6.698396964937756 ] # c
  points:
  - symbol: Ca # 1
    coordinates: [  0.256375811015602,  0.000000000000000,  0.250000000000000 ]
    mass: 40.078000
    reduced_to: 1
  - symbol: Ca # 2
    coordinates: [  0.000000000000000,  0.256375811015602,  0.250000000000000 ]
    mass: 40.078000
    reduced_to: 2
  - symbol: Ca # 3
    coordinates: [  0.666666666666664,  0.333333333333336,  0.500000000000000 ]
    mass: 40.078000
    reduced_to: 3
  - symbol: Ca # 4
    coordinates: [  0.333333333333336,  0.666666666666664,  0.000000000000000 ]
    mass: 40.078000
    reduced_to: 4
  - symbol: Ca # 5
    coordinates: [  0.256375811015602,  0.256375811015602,  0.750000000000000 ]
    mass: 40.078000
    reduced_to: 5
  - symbol: Ca # 6
    coordinates: [  0.000000000000000,  0.743624188984398,  0.750000000000000 ]
    mass: 40.078000
    reduced_to: 6
  - symbol: Ca # 7
    coordinates: [  0.743624188984398,  0.000000000000000,  0.750000000000000 ]
    mass: 40.078000
    reduced_to: 7
  - symbol: Ca # 8
    coordinates: [  0.743624188984398,  0.743624188984398,  0.250000000000000 ]
    mass: 40.078000
    reduced_to: 8
  - symbol: Ca # 9
    coordinates: [  0.666666666666664,  0.333333333333336,  0.000000000000000 ]
    mass: 40.078000
    reduced_to: 9
  - symbol: Ca # 10
    coordinates: [  0.333333333333336,  0.666666666666664,  0.500000000000000 ]
    mass: 40.078000
    reduced_to: 10
  - symbol: P # 11
    coordinates: [  0.390152172332670,  0.390152172332670,  0.250000000000000 ]
    mass: 30.973762
    reduced_to: 11
  - symbol: P # 12
    coordinates: [  0.390152172332670,  0.000000000000000,  0.750000000000000 ]
    mass: 30.973762
    reduced_to: 12
  - symbol: P # 13
    coordinates: [  0.609847827667330,  0.609847827667330,  0.750000000000000 ]
    mass: 30.973762
    reduced_to: 13
  - symbol: P # 14
    coordinates: [  0.000000000000000,  0.390152172332670,  0.750000000000000 ]
    mass: 30.973762
    reduced_to: 14
  - symbol: P # 15
    coordinates: [  0.609847827667330,  0.000000000000000,  0.250000000000000 ]
    mass: 30.973762
    reduced_to: 15
  - symbol: P # 16
    coordinates: [  0.000000000000000,  0.609847827667330,  0.250000000000000 ]
    mass: 30.973762
    reduced_to: 16

supercell:
  lattice:
  - [    14.388959263908241,    -8.307469504375979,     0.000000000000001 ] # a
  - [     0.000000000000000,    16.614939008751964,     0.000000000000001 ] # b
  - [     0.000000000000000,     0.000000000000000,    13.396793929875512 ] # c
  points:
  - symbol: Ca # 1
    coordinates: [  0.128187905507801,  0.000000000000000,  0.125000000000000 ]
    mass: 40.078000
    reduced_to: 1
  - symbol: Ca # 2
    coordinates: [  0.628187905507801,  0.000000000000000,  0.125000000000000 ]
    mass: 40.078000
    reduced_to: 1
  - symbol: Ca # 3
    coordinates: [  0.128187905507801,  0.500000000000000,  0.125000000000000 ]
    mass: 40.078000
    reduced_to: 1
  - symbol: Ca # 4
    coordinates: [  0.628187905507801,  0.500000000000000,  0.125000000000000 ]
    mass: 40.078000
    reduced_to: 1
  - symbol: Ca # 5
    coordinates: [  0.128187905507801,  0.000000000000000,  0.625000000000000 ]
    mass: 40.078000
    reduced_to: 1
  - symbol: Ca # 6
    coordinates: [  0.628187905507801,  0.000000000000000,  0.625000000000000 ]
    mass: 40.078000
    reduced_to: 1
  - symbol: Ca # 7
    coordinates: [  0.128187905507801,  0.500000000000000,  0.625000000000000 ]
    mass: 40.078000
    reduced_to: 1
  - symbol: Ca # 8
    coordinates: [  0.628187905507801,  0.500000000000000,  0.625000000000000 ]
    mass: 40.078000
    reduced_to: 1
  - symbol: Ca # 9
    coordinates: [  0.000000000000000,  0.128187905507801,  0.125000000000000 ]
    mass: 40.078000
    reduced_to: 9
  - symbol: Ca # 10
    coordinates: [  0.500000000000000,  0.128187905507801,  0.125000000000000 ]
    mass: 40.078000
    reduced_to: 9
  - symbol: Ca # 11
    coordinates: [  0.000000000000000,  0.628187905507801,  0.125000000000000 ]
    mass: 40.078000
    reduced_to: 9
  - symbol: Ca # 12
    coordinates: [  0.500000000000000,  0.628187905507801,  0.125000000000000 ]
    mass: 40.078000
    reduced_to: 9
  - symbol: Ca # 13
    coordinates: [  0.000000000000000,  0.128187905507801,  0.625000000000000 ]
    mass: 40.078000
    reduced_to: 9
  - symbol: Ca # 14
    coordinates: [  0.500000000000000,  0.128187905507801,  0.625000000000000 ]
    mass: 40.078000
    reduced_to: 9
  - symbol: Ca # 15
    coordinates: [  0.000000000000000,  0.628187905507801,  0.625000000000000 ]
    mass: 40.078000
    reduced_to: 9
  - symbol: Ca # 16
    coordinates: [  0.500000000000000,  0.628187905507801,  0.625000000000000 ]
    mass: 40.078000
    reduced_to: 9
  - symbol: Ca # 17
    coordinates: [  0.333333333333332,  0.166666666666668,  0.250000000000000 ]
    mass: 40.078000
    reduced_to: 17
  - symbol: Ca # 18
    coordinates: [  0.833333333333332,  0.166666666666668,  0.250000000000000 ]
    mass: 40.078000
    reduced_to: 17
  - symbol: Ca # 19
    coordinates: [  0.333333333333332,  0.666666666666668,  0.250000000000000 ]
    mass: 40.078000
    reduced_to: 17
  - symbol: Ca # 20
    coordinates: [  0.833333333333332,  0.666666666666668,  0.250000000000000 ]
    mass: 40.078000
    reduced_to: 17
  - symbol: Ca # 21
    coordinates: [  0.333333333333332,  0.166666666666668,  0.750000000000000 ]
    mass: 40.078000
    reduced_to: 17
  - symbol: Ca # 22
    coordinates: [  0.833333333333332,  0.166666666666668,  0.750000000000000 ]
    mass: 40.078000
    reduced_to: 17
  - symbol: Ca # 23
    coordinates: [  0.333333333333332,  0.666666666666668,  0.750000000000000 ]
    mass: 40.078000
    reduced_to: 17
  - symbol: Ca # 24
    coordinates: [  0.833333333333332,  0.666666666666668,  0.750000000000000 ]
    mass: 40.078000
    reduced_to: 17
  - symbol: Ca # 25
    coordinates: [  0.166666666666668,  0.333333333333332,  0.000000000000000 ]
    mass: 40.078000
    reduced_to: 25
  - symbol: Ca # 26
    coordinates: [  0.666666666666668,  0.333333333333332,  0.000000000000000 ]
    mass: 40.078000
    reduced_to: 25
  - symbol: Ca # 27
    coordinates: [  0.166666666666668,  0.833333333333332,  0.000000000000000 ]
    mass: 40.078000
    reduced_to: 25
  - symbol: Ca # 28
    coordinates: [  0.666666666666668,  0.833333333333332,  0.000000000000000 ]
    mass: 40.078000
    reduced_to: 25
  - symbol: Ca # 29
    coordinates: [  0.166666666666668,  0.333333333333332,  0.500000000000000 ]
    mass: 40.078000
    reduced_to: 25
  - symbol: Ca # 30
    coordinates: [  0.666666666666668,  0.333333333333332,  0.500000000000000 ]
    mass: 40.078000
    reduced_to: 25
  - symbol: Ca # 31
    coordinates: [  0.166666666666668,  0.833333333333332,  0.500000000000000 ]
    mass: 40.078000
    reduced_to: 25
  - symbol: Ca # 32
    coordinates: [  0.666666666666668,  0.833333333333332,  0.500000000000000 ]
    mass: 40.078000
    reduced_to: 25
  - symbol: Ca # 33
    coordinates: [  0.128187905507801,  0.128187905507801,  0.375000000000000 ]
    mass: 40.078000
    reduced_to: 33
  - symbol: Ca # 34
    coordinates: [  0.628187905507801,  0.128187905507801,  0.375000000000000 ]
    mass: 40.078000
    reduced_to: 33
  - symbol: Ca # 35
    coordinates: [  0.128187905507801,  0.628187905507801,  0.375000000000000 ]
    mass: 40.078000
    reduced_to: 33
  - symbol: Ca # 36
    coordinates: [  0.628187905507801,  0.628187905507801,  0.375000000000000 ]
    mass: 40.078000
    reduced_to: 33
  - symbol: Ca # 37
    coordinates: [  0.128187905507801,  0.128187905507801,  0.875000000000000 ]
    mass: 40.078000
    reduced_to: 33
  - symbol: Ca # 38
    coordinates: [  0.628187905507801,  0.128187905507801,  0.875000000000000 ]
    mass: 40.078000
    reduced_to: 33
  - symbol: Ca # 39
    coordinates: [  0.128187905507801,  0.628187905507801,  0.875000000000000 ]
    mass: 40.078000
    reduced_to: 33
  - symbol: Ca # 40
    coordinates: [  0.628187905507801,  0.628187905507801,  0.875000000000000 ]
    mass: 40.078000
    reduced_to: 33
  - symbol: Ca # 41
    coordinates: [  0.000000000000000,  0.371812094492199,  0.375000000000000 ]
    mass: 40.078000
    reduced_to: 41
  - symbol: Ca # 42
    coordinates: [  0.500000000000000,  0.371812094492199,  0.375000000000000 ]
    mass: 40.078000
    reduced_to: 41
  - symbol: Ca # 43
    coordinates: [  0.000000000000000,  0.871812094492199,  0.375000000000000 ]
    mass: 40.078000
    reduced_to: 41
  - symbol: Ca # 44
    coordinates: [  0.500000000000000,  0.871812094492199,  0.375000000000000 ]
    mass: 40.078000
    reduced_to: 41
  - symbol: Ca # 45
    coordinates: [  0.000000000000000,  0.371812094492199,  0.875000000000000 ]
    mass: 40.078000
    reduced_to: 41
  - symbol: Ca # 46
    coordinates: [  0.500000000000000,  0.371812094492199,  0.875000000000000 ]
    mass: 40.078000
    reduced_to: 41
  - symbol: Ca # 47
    coordinates: [  0.000000000000000,  0.871812094492199,  0.875000000000000 ]
    mass: 40.078000
    reduced_to: 41
  - symbol: Ca # 48
    coordinates: [  0.500000000000000,  0.871812094492199,  0.875000000000000 ]
    mass: 40.078000
    reduced_to: 41
  - symbol: Ca # 49
    coordinates: [  0.371812094492199,  0.000000000000000,  0.375000000000000 ]
    mass: 40.078000
    reduced_to: 49
  - symbol: Ca # 50
    coordinates: [  0.871812094492199,  0.000000000000000,  0.375000000000000 ]
    mass: 40.078000
    reduced_to: 49
  - symbol: Ca # 51
    coordinates: [  0.371812094492199,  0.500000000000000,  0.375000000000000 ]
    mass: 40.078000
    reduced_to: 49
  - symbol: Ca # 52
    coordinates: [  0.871812094492199,  0.500000000000000,  0.375000000000000 ]
    mass: 40.078000
    reduced_to: 49
  - symbol: Ca # 53
    coordinates: [  0.371812094492199,  0.000000000000000,  0.875000000000000 ]
    mass: 40.078000
    reduced_to: 49
  - symbol: Ca # 54
    coordinates: [  0.871812094492199,  0.000000000000000,  0.875000000000000 ]
    mass: 40.078000
    reduced_to: 49
  - symbol: Ca # 55
    coordinates: [  0.371812094492199,  0.500000000000000,  0.875000000000000 ]
    mass: 40.078000
    reduced_to: 49
  - symbol: Ca # 56
    coordinates: [  0.871812094492199,  0.500000000000000,  0.875000000000000 ]
    mass: 40.078000
    reduced_to: 49
  - symbol: Ca # 57
    coordinates: [  0.371812094492199,  0.371812094492199,  0.125000000000000 ]
    mass: 40.078000
    reduced_to: 57
  - symbol: Ca # 58
    coordinates: [  0.871812094492199,  0.371812094492199,  0.125000000000000 ]
    mass: 40.078000
    reduced_to: 57
  - symbol: Ca # 59
    coordinates: [  0.371812094492199,  0.871812094492199,  0.125000000000000 ]
    mass: 40.078000
    reduced_to: 57
  - symbol: Ca # 60
    coordinates: [  0.871812094492199,  0.871812094492199,  0.125000000000000 ]
    mass: 40.078000
    reduced_to: 57
  - symbol: Ca # 61
    coordinates: [  0.371812094492199,  0.371812094492199,  0.625000000000000 ]
    mass: 40.078000
    reduced_to: 57
  - symbol: Ca # 62
    coordinates: [  0.871812094492199,  0.371812094492199,  0.625000000000000 ]
    mass: 40.078000
    reduced_to: 57
  - symbol: Ca # 63
    coordinates: [  0.371812094492199,  0.871812094492199,  0.625000000000000 ]
    mass: 40.078000
    reduced_to: 57
  - symbol: Ca # 64
    coordinates: [  0.871812094492199,  0.871812094492199,  0.625000000000000 ]
    mass: 40.078000
    reduced_to: 57
  - symbol: Ca # 65
    coordinates: [  0.333333333333332,  0.166666666666668,  0.000000000000000 ]
    mass: 40.078000
    reduced_to: 65
  - symbol: Ca # 66
    coordinates: [  0.833333333333332,  0.166666666666668,  0.000000000000000 ]
    mass: 40.078000
    reduced_to: 65
  - symbol: Ca # 67
    coordinates: [  0.333333333333332,  0.666666666666668,  0.000000000000000 ]
    mass: 40.078000
    reduced_to: 65
  - symbol: Ca # 68
    coordinates: [  0.833333333333332,  0.666666666666668,  0.000000000000000 ]
    mass: 40.078000
    reduced_to: 65
  - symbol: Ca # 69
    coordinates: [  0.333333333333332,  0.166666666666668,  0.500000000000000 ]
    mass: 40.078000
    reduced_to: 65
  - symbol: Ca # 70
    coordinates: [  0.833333333333332,  0.166666666666668,  0.500000000000000 ]
    mass: 40.078000
    reduced_to: 65
  - symbol: Ca # 71
    coordinates: [  0.333333333333332,  0.666666666666668,  0.500000000000000 ]
    mass: 40.078000
    reduced_to: 65
  - symbol: Ca # 72
    coordinates: [  0.833333333333332,  0.666666666666668,  0.500000000000000 ]
    mass: 40.078000
    reduced_to: 65
  - symbol: Ca # 73
    coordinates: [  0.166666666666668,  0.333333333333332,  0.250000000000000 ]
    mass: 40.078000
    reduced_to: 73
  - symbol: Ca # 74
    coordinates: [  0.666666666666668,  0.333333333333332,  0.250000000000000 ]
    mass: 40.078000
    reduced_to: 73
  - symbol: Ca # 75
    coordinates: [  0.166666666666668,  0.833333333333332,  0.250000000000000 ]
    mass: 40.078000
    reduced_to: 73
  - symbol: Ca # 76
    coordinates: [  0.666666666666668,  0.833333333333332,  0.250000000000000 ]
    mass: 40.078000
    reduced_to: 73
  - symbol: Ca # 77
    coordinates: [  0.166666666666668,  0.333333333333332,  0.750000000000000 ]
    mass: 40.078000
    reduced_to: 73
  - symbol: Ca # 78
    coordinates: [  0.666666666666668,  0.333333333333332,  0.750000000000000 ]
    mass: 40.078000
    reduced_to: 73
  - symbol: Ca # 79
    coordinates: [  0.166666666666668,  0.833333333333332,  0.750000000000000 ]
    mass: 40.078000
    reduced_to: 73
  - symbol: Ca # 80
    coordinates: [  0.666666666666668,  0.833333333333332,  0.750000000000000 ]
    mass: 40.078000
    reduced_to: 73
  - symbol: P # 81
    coordinates: [  0.195076086166335,  0.195076086166335,  0.125000000000000 ]
    mass: 30.973762
    reduced_to: 81
  - symbol: P # 82
    coordinates: [  0.695076086166335,  0.195076086166335,  0.125000000000000 ]
    mass: 30.973762
    reduced_to: 81
  - symbol: P # 83
    coordinates: [  0.195076086166335,  0.695076086166335,  0.125000000000000 ]
    mass: 30.973762
    reduced_to: 81
  - symbol: P # 84
    coordinates: [  0.695076086166335,  0.695076086166335,  0.125000000000000 ]
    mass: 30.973762
    reduced_to: 81
  - symbol: P # 85
    coordinates: [  0.195076086166335,  0.195076086166335,  0.625000000000000 ]
    mass: 30.973762
    reduced_to: 81
  - symbol: P # 86
    coordinates: [  0.695076086166335,  0.195076086166335,  0.625000000000000 ]
    mass: 30.973762
    reduced_to: 81
  - symbol: P # 87
    coordinates: [  0.195076086166335,  0.695076086166335,  0.625000000000000 ]
    mass: 30.973762
    reduced_to: 81
  - symbol: P # 88
    coordinates: [  0.695076086166335,  0.695076086166335,  0.625000000000000 ]
    mass: 30.973762
    reduced_to: 81
  - symbol: P # 89
    coordinates: [  0.195076086166335,  0.000000000000000,  0.375000000000000 ]
    mass: 30.973762
    reduced_to: 89
  - symbol: P # 90
    coordinates: [  0.695076086166335,  0.000000000000000,  0.375000000000000 ]
    mass: 30.973762
    reduced_to: 89
  - symbol: P # 91
    coordinates: [  0.195076086166335,  0.500000000000000,  0.375000000000000 ]
    mass: 30.973762
    reduced_to: 89
  - symbol: P # 92
    coordinates: [  0.695076086166335,  0.500000000000000,  0.375000000000000 ]
    mass: 30.973762
    reduced_to: 89
  - symbol: P # 93
    coordinates: [  0.195076086166335,  0.000000000000000,  0.875000000000000 ]
    mass: 30.973762
    reduced_to: 89
  - symbol: P # 94
    coordinates: [  0.695076086166335,  0.000000000000000,  0.875000000000000 ]
    mass: 30.973762
    reduced_to: 89
  - symbol: P # 95
    coordinates: [  0.195076086166335,  0.500000000000000,  0.875000000000000 ]
    mass: 30.973762
    reduced_to: 89
  - symbol: P # 96
    coordinates: [  0.695076086166335,  0.500000000000000,  0.875000000000000 ]
    mass: 30.973762
    reduced_to: 89
  - symbol: P # 97
    coordinates: [  0.304923913833665,  0.304923913833665,  0.375000000000000 ]
    mass: 30.973762
    reduced_to: 97
  - symbol: P # 98
    coordinates: [  0.804923913833665,  0.304923913833665,  0.375000000000000 ]
    mass: 30.973762
    reduced_to: 97
  - symbol: P # 99
    coordinates: [  0.304923913833665,  0.804923913833665,  0.375000000000000 ]
    mass: 30.973762
    reduced_to: 97
  - symbol: P # 100
    coordinates: [  0.804923913833665,  0.804923913833665,  0.375000000000000 ]
    mass: 30.973762
    reduced_to: 97
  - symbol: P # 101
    coordinates: [  0.304923913833665,  0.304923913833665,  0.875000000000000 ]
    mass: 30.973762
    reduced_to: 97
  - symbol: P # 102
    coordinates: [  0.804923913833665,  0.304923913833665,  0.875000000000000 ]
    mass: 30.973762
    reduced_to: 97
  - symbol: P # 103
    coordinates: [  0.304923913833665,  0.804923913833665,  0.875000000000000 ]
    mass: 30.973762
    reduced_to: 97
  - symbol: P # 104
    coordinates: [  0.804923913833665,  0.804923913833665,  0.875000000000000 ]
    mass: 30.973762
    reduced_to: 97
  - symbol: P # 105
    coordinates: [  0.000000000000000,  0.195076086166335,  0.375000000000000 ]
    mass: 30.973762
    reduced_to: 105
  - symbol: P # 106
    coordinates: [  0.500000000000000,  0.195076086166335,  0.375000000000000 ]
    mass: 30.973762
    reduced_to: 105
  - symbol: P # 107
    coordinates: [  0.000000000000000,  0.695076086166335,  0.375000000000000 ]
    mass: 30.973762
    reduced_to: 105
  - symbol: P # 108
    coordinates: [  0.500000000000000,  0.695076086166335,  0.375000000000000 ]
    mass: 30.973762
    reduced_to: 105
  - symbol: P # 109
    coordinates: [  0.000000000000000,  0.195076086166335,  0.875000000000000 ]
    mass: 30.973762
    reduced_to: 105
  - symbol: P # 110
    coordinates: [  0.500000000000000,  0.195076086166335,  0.875000000000000 ]
    mass: 30.973762
    reduced_to: 105
  - symbol: P # 111
    coordinates: [  0.000000000000000,  0.695076086166335,  0.875000000000000 ]
    mass: 30.973762
    reduced_to: 105
  - symbol: P # 112
    coordinates: [  0.500000000000000,  0.695076086166335,  0.875000000000000 ]
    mass: 30.973762
    reduced_to: 105
  - symbol: P # 113
    coordinates: [  0.304923913833665,  0.000000000000000,  0.125000000000000 ]
    mass: 30.973762
    reduced_to: 113
  - symbol: P # 114
    coordinates: [  0.804923913833665,  0.000000000000000,  0.125000000000000 ]
    mass: 30.973762
    reduced_to: 113
  - symbol: P # 115
    coordinates: [  0.304923913833665,  0.500000000000000,  0.125000000000000 ]
    mass: 30.973762
    reduced_to: 113
  - symbol: P # 116
    coordinates: [  0.804923913833665,  0.500000000000000,  0.125000000000000 ]
    mass: 30.973762
    reduced_to: 113
  - symbol: P # 117
    coordinates: [  0.304923913833665,  0.000000000000000,  0.625000000000000 ]
    mass: 30.973762
    reduced_to: 113
  - symbol: P # 118
    coordinates: [  0.804923913833665,  0.000000000000000,  0.625000000000000 ]
    mass: 30.973762
    reduced_to: 113
  - symbol: P # 119
    coordinates: [  0.304923913833665,  0.500000000000000,  0.625000000000000 ]
    mass: 30.973762
    reduced_to: 113
  - symbol: P # 120
    coordinates: [  0.804923913833665,  0.500000000000000,  0.625000000000000 ]
    mass: 30.973762
    reduced_to: 113
  - symbol: P # 121
    coordinates: [  0.000000000000000,  0.304923913833665,  0.125000000000000 ]
    mass: 30.973762
    reduced_to: 121
  - symbol: P # 122
    coordinates: [  0.500000000000000,  0.304923913833665,  0.125000000000000 ]
    mass: 30.973762
    reduced_to: 121
  - symbol: P # 123
    coordinates: [  0.000000000000000,  0.804923913833665,  0.125000000000000 ]
    mass: 30.973762
    reduced_to: 121
  - symbol: P # 124
    coordinates: [  0.500000000000000,  0.804923913833665,  0.125000000000000 ]
    mass: 30.973762
    reduced_to: 121
  - symbol: P # 125
    coordinates: [  0.000000000000000,  0.304923913833665,  0.625000000000000 ]
    mass: 30.973762
    reduced_to: 121
  - symbol: P # 126
    coordinates: [  0.500000000000000,  0.304923913833665,  0.625000000000000 ]
    mass: 30.973762
    reduced_to: 121
  - symbol: P # 127
    coordinates: [  0.000000000000000,  0.804923913833665,  0.625000000000000 ]
    mass: 30.973762
    reduced_to: 121
  - symbol: P # 128
    coordinates: [  0.500000000000000,  0.804923913833665,  0.625000000000000 ]
    mass: 30.973762
    reduced_to: 121

displacements:
- atom:    1
  displacement:
    [   0.0000000000000000,  0.0077846684966264,  0.0062768572070450 ]
  forces:
  - [  -0.0063569800000000, -0.0520968900000000, -0.0080115600000000 ]
  - [   0.0036226700000000, -0.0021390500000000, -0.0000798300000000 ]
  - [   0.0034905400000000, -0.0016964800000000, -0.0000273100000000 ]
  - [   0.0034947900000000, -0.0017028700000000, -0.0000256300000000 ]
  - [   0.0035909200000000, -0.0020011300000000,  0.0012930600000000 ]
  - [   0.0033375000000000, -0.0019654200000000, -0.0000479900000000 ]
  - [   0.0033611400000000, -0.0018725500000000, -0.0000113900000000 ]
  - [   0.0033512100000000, -0.0018524700000000, -0.0000130800000000 ]
  - [  -0.0042890000000000,  0.0073371200000000,  0.0009325300000000 ]
  - [  -0.0007112200000000,  0.0040103600000000,  0.0000111300000000 ]
  - [   0.0001587200000000,  0.0055304600000000,  0.0000109800000000 ]
  - [   0.0002905900000000,  0.0038461200000000, -0.0000192800000000 ]
  - [   0.0000221500000000,  0.0038804900000000,  0.0003181600000000 ]
  - [  -0.0000810300000000,  0.0038412900000000, -0.0000643100000000 ]
  - [   0.0000162100000000,  0.0040178400000000, -0.0000624200000000 ]
  - [   0.0001043100000000,  0.0038050000000000, -0.0000186400000000 ]
  - [   0.0058750200000000, -0.0004100700000000,  0.0021463600000000 ]
  - [  -0.0000971600000000, -0.0002125100000000, -0.0000261800000000 ]
  - [  -0.0000487000000000,  0.0001968300000000, -0.0000342400000000 ]
  - [   0.0010500400000000,  0.0007559700000000, -0.0006372500000000 ]
  - [  -0.0006784400000000, -0.0006676200000000,  0.0002695700000000 ]
  - [  -0.0000883500000000, -0.0000120300000000, -0.0000314100000000 ]
  - [   0.0000263700000000,  0.0001538300000000,  0.0000422800000000 ]
  - [   0.0001452100000000, -0.0000032800000000,  0.0000727800000000 ]
  - [   0.0000160200000000,  0.0011882400000000, -0.0005482800000000 ]
  - [   0.0000591000000000,  0.0000468600000000, -0.0000117000000000 ]
  - [  -0.0023569100000000,  0.0093441600000000,  0.0048959200000000 ]
  - [   0.0001422700000000, -0.0000279100000000,  0.0001757700000000 ]
  - [  -0.0001906700000000,  0.0000183300000000,  0.0000312100000000 ]
  - [   0.0000275700000000,  0.0000803400000000, -0.0000103500000000 ]
  - [  -0.0001642900000000, -0.0004600000000000,  0.0001203900000000 ]
  - [   0.0001227300000000, -0.0001570700000000, -0.0001073900000000 ]
  - [   0.0021063300000000,  0.0039293700000000,  0.0032994400000000 ]
  - [   0.0034514500000000,  0.0019313300000000,  0.0001092600000000 ]
  - [   0.0032300400000000,  0.0022665500000000,  0.0000346600000000 ]
  - [   0.0035675700000000,  0.0020266900000000,  0.0000015800000000 ]
  - [   0.0037335200000000,  0.0002988300000000, -0.0012067500000000 ]
  - [   0.0033833000000000,  0.0019905500000000, -0.0000319800000000 ]
  - [   0.0032661600000000,  0.0022495300000000,  0.0000129000000000 ]
  - [   0.0034175700000000,  0.0019164900000000,  0.0000736500000000 ]
  - [  -0.0000526300000000, -0.0039952000000000,  0.0000942000000000 ]
  - [   0.0002792200000000, -0.0038699900000000, -0.0000018600000000 ]
  - [  -0.0014872100000000, -0.0039759400000000, -0.0009689500000000 ]
  - [  -0.0000270600000000, -0.0039520900000000,  0.0000866300000000 ]
  - [  -0.0000317800000000, -0.0038020800000000, -0.0000182000000000 ]
  - [   0.0003134800000000, -0.0039005300000000,  0.0000488600000000 ]
  - [   0.0024341600000000, -0.0035873300000000,  0.0029983200000000 ]
  - [  -0.0001133000000000, -0.0039230300000000, -0.0000099100000000 ]
  - [  -0.0031368400000000,  0.0018337200000000, -0.0005168300000000 ]
  - [  -0.0021788700000000,  0.0011323200000000, -0.0015377100000000 ]
  - [  -0.0032169500000000,  0.0021005300000000,  0.0000167300000000 ]
  - [  -0.0032287000000000,  0.0021922800000000,  0.0000626600000000 ]
  - [  -0.0041249000000000,  0.0024036200000000,  0.0001888800000000 ]
  - [  -0.0038445200000000,  0.0020911600000000, -0.0003471300000000 ]
  - [  -0.0031956900000000,  0.0021385100000000,  0.0000585600000000 ]
  - [  -0.0032423400000000,  0.0021514900000000,  0.0000132300000000 ]
  - [  -0.0022975700000000, -0.0011728800000000,  0.0000121000000000 ]
  - [  -0.0035415400000000, -0.0017852500000000, -0.0000217300000000 ]
  - [  -0.0040204400000000, -0.0011656800000000,  0.0000110100000000 ]
  - [  -0.0017093800000000, -0.0030689500000000,  0.0009385300000000 ]
  - [  -0.0032446400000000, -0.0018991100000000, -0.0000645100000000 ]
  - [  -0.0033936600000000, -0.0018966900000000, -0.0000167200000000 ]
  - [  -0.0034193300000000, -0.0018880400000000, -0.0000643200000000 ]
  - [  -0.0034542200000000, -0.0020572100000000,  0.0003183800000000 ]
  - [  -0.0003433600000000, -0.0028993800000000, -0.0011911500000000 ]
  - [  -0.0002340300000000, -0.0001692800000000,  0.0001229000000000 ]
  - [  -0.0000336700000000,  0.0002391500000000,  0.0000170200000000 ]
  - [   0.0010689200000000,  0.0006317500000000,  0.0008794700000000 ]
  - [   0.0002420000000000, -0.0000849600000000,  0.0003860300000000 ]
  - [   0.0000293400000000, -0.0000102600000000, -0.0000683600000000 ]
  - [   0.0000161300000000,  0.0001093300000000, -0.0000117200000000 ]
  - [   0.0001151700000000,  0.0000646000000000, -0.0001802200000000 ]
  - [  -0.0001020200000000,  0.0011382600000000,  0.0007905500000000 ]
  - [   0.0000867900000000,  0.0000809900000000, -0.0000056300000000 ]
  - [  -0.0014345500000000,  0.0028220100000000, -0.0039765500000000 ]
  - [   0.0002475900000000, -0.0001250500000000, -0.0000799200000000 ]
  - [  -0.0001175100000000,  0.0000272800000000, -0.0001395700000000 ]
  - [  -0.0000048400000000,  0.0000491700000000,  0.0000406000000000 ]
  - [  -0.0001199600000000,  0.0006289200000000,  0.0005338500000000 ]
  - [   0.0000655600000000, -0.0000542100000000,  0.0000083300000000 ]
  - [   0.0024990200000000,  0.0124898900000000,  0.0010134000000000 ]
  - [  -0.0029341600000000, -0.0018213200000000,  0.0000080500000000 ]
  - [  -0.0027130800000000, -0.0025891100000000,  0.0000844000000000 ]
  - [  -0.0039943500000000, -0.0017077100000000, -0.0000091000000000 ]
  - [  -0.0028922600000000, -0.0013780200000000, -0.0001985100000000 ]
  - [  -0.0030175600000000, -0.0017658600000000,  0.0000186500000000 ]
  - [  -0.0029816700000000, -0.0019687400000000, -0.0000649400000000 ]
  - [  -0.0032401600000000, -0.0018119500000000,  0.0001590000000000 ]
  - [  -0.0028673000000000,  0.0042498600000000, -0.0012233100000000 ]
  - [  -0.0031490200000000,  0.0019290500000000,  0.0000292700000000 ]